<?xml version="1.0"?>
<VTKFile type="UnstructuredGrid" version="0.1" byte_order="LittleEndian">
  <UnstructuredGrid>
    <Piece NumberOfPoints="102" NumberOfCells="288">
      <Points>
        <DataArray type="Float64" NumberOfComponents="3" format="ascii">
        0.04000 0.04000 1.00000
        0.04000 0.00000 1.00000
        0.04000 0.00000 0.00000
        0.04000 0.04000 0.00000
        0.00000 0.00000 1.00000
        0.00000 0.00000 0.00000
        0.00000 0.04000 0.00000
        0.00000 0.04000 1.00000
        0.04000 0.02000 1.00000
        0.04000 0.00000 0.90000
        0.04000 0.00000 0.80000
        0.04000 0.00000 0.70000
        0.04000 0.00000 0.60000
        0.04000 0.00000 0.50000
        0.04000 0.00000 0.40000
        0.04000 0.00000 0.30000
        0.04000 0.00000 0.20000
        0.04000 0.00000 0.10000
        0.04000 0.02000 0.00000
        0.04000 0.04000 0.10000
        0.04000 0.04000 0.20000
        0.04000 0.04000 0.30000
        0.04000 0.04000 0.40000
        0.04000 0.04000 0.50000
        0.04000 0.04000 0.60000
        0.04000 0.04000 0.70000
        0.04000 0.04000 0.80000
        0.04000 0.04000 0.90000
        0.02000 0.00000 1.00000
        0.00000 0.00000 0.90000
        0.00000 0.00000 0.80000
        0.00000 0.00000 0.70000
        0.00000 0.00000 0.60000
        0.00000 0.00000 0.50000
        0.00000 0.00000 0.40000
        0.00000 0.00000 0.30000
        0.00000 0.00000 0.20000
        0.00000 0.00000 0.10000
        0.02000 0.00000 0.00000
        0.00000 0.02000 0.00000
        0.02000 0.04000 0.00000
        0.02000 0.04000 1.00000
        0.00000 0.04000 0.10000
        0.00000 0.04000 0.20000
        0.00000 0.04000 0.30000
        0.00000 0.04000 0.40000
        0.00000 0.04000 0.50000
        0.00000 0.04000 0.60000
        0.00000 0.04000 0.70000
        0.00000 0.04000 0.80000
        0.00000 0.04000 0.90000
        0.00000 0.02000 1.00000
        0.04000 0.02000 0.90000
        0.04000 0.02000 0.80000
        0.04000 0.02000 0.70000
        0.04000 0.02000 0.60000
        0.04000 0.02000 0.50000
        0.04000 0.02000 0.40000
        0.04000 0.02000 0.30000
        0.04000 0.02000 0.20000
        0.04000 0.02000 0.10000
        0.02000 0.00000 0.90000
        0.02000 0.00000 0.80000
        0.02000 0.00000 0.70000
        0.02000 0.00000 0.60000
        0.02000 0.00000 0.50000
        0.02000 0.00000 0.40000
        0.02000 0.00000 0.30000
        0.02000 0.00000 0.20000
        0.02000 0.00000 0.10000
        0.02000 0.02000 0.00000
        0.02000 0.04000 0.90000
        0.02000 0.04000 0.80000
        0.02000 0.04000 0.70000
        0.02000 0.04000 0.60000
        0.02000 0.04000 0.50000
        0.02000 0.04000 0.40000
        0.02000 0.04000 0.30000
        0.02000 0.04000 0.20000
        0.02000 0.04000 0.10000
        0.02000 0.02000 1.00000
        0.00000 0.02000 0.90000
        0.00000 0.02000 0.80000
        0.00000 0.02000 0.70000
        0.00000 0.02000 0.60000
        0.00000 0.02000 0.50000
        0.00000 0.02000 0.40000
        0.00000 0.02000 0.30000
        0.00000 0.02000 0.20000
        0.00000 0.02000 0.10000
        0.01560 0.01555 0.34388
        0.01651 0.02822 0.24710
        0.01997 0.01752 0.86677
        0.01969 0.02105 0.54679
        0.02078 0.01867 0.45855
        0.02399 0.01765 0.97893
        0.02286 0.02797 0.95003
        0.01921 0.01217 0.04553
        0.01164 0.02090 0.01991
        0.01443 0.01874 0.75928
        0.02208 0.02260 0.64896
        0.02330 0.01535 0.17608
        </DataArray>
      </Points>
      <Cells>
        <DataArray type="Int32" Name="connectivity" format="ascii">
 86 66 34 90
 44 77 86 87
 90 35 67 66
 68 67 58 91
 92 50 81 71
 55 93 74 56
 93 85 46 75
 65 85 75 94
 93 12 65 13
 93 84 85 32
 93 65 12 64
 93 33 64 32
 93 64 33 65
 52 95 0 96
 0 96 27 52
 95 96 29 4
 95 29 96 61
 95 96 4 51
 95 96 51 7
 95 96 7 41
 96 95 0 41
 96 61 52 95
 76 46 94 75
 40 18 3 79
 94 56 65 13
 56 65 13 93
 89 40 79 97
 40 98 97 89
 97 89 98 37
 97 98 18 2
 97 37 98 5
 97 98 38 5
 97 98 2 38
 72 25 99 73
 40 42 89 79
 97 5 69 37
 97 69 5 38
 98 39 89 6
 98 89 39 37
 98 18 2 70
 98 70 2 38
 100 63 32 64
 100 74 48 73
 100 73 24 74
 100 73 25 24
 100 11 64 12
 100 54 12 55
 100 25 54 55
 100 64 11 63
 95 8 80 1
 101 42 89 88
 96 71 27 52
 95 28 4 29
 95 61 1 28
 96 29 81 61
 95 80 41 7
 96 4 51 81
 95 80 7 51
 91 77 21 20
 91 78 77 20
 100 83 73 48
 43 91 101 78
 58 21 59 101
 101 21 59 20
 91 43 44 78
 68 101 58 16
 83 73 48 99
 87 67 58 90
 91 87 44 43
 15 68 67 58
 101 59 16 17
 59 16 58 101
 99 53 62 63
 92 81 29 61
 92 72 53 62
 92 26 53 72
 9 52 62 61
 92 62 61 30
 52 62 61 92
 96 52 61 71
 92 29 30 61
 94 57 66 86
 67 57 15 58
 58 90 67 57
 87 67 88 91
 94 14 66 57
 14 57 15 67
 67 87 35 90
 30 83 99 31
 92 82 29 81
 87 44 77 91
 100 54 73 83
 91 44 77 78
 101 79 42 43
 99 30 82 83
 91 67 58 87
 100 48 74 47
 76 90 86 77
 63 53 11 54
 72 26 99 25
 25 99 73 54
 99 82 62 72
 100 64 55 12
 63 31 62 99
 100 25 73 54
 100 31 83 84
 95 51 4 28
 89 79 60 97
 97 18 79 60
 49 99 48 73
 97 17 38 2
 51 71 50 7
 95 61 9 1
 95 80 8 41
 41 96 27 0
 7 96 51 71
 101 43 42 88
 101 79 89 42
 72 49 73 99
 94 86 66 34
 98 40 70 6
 60 78 19 79
 91 77 58 21
 20 78 19 60
 92 82 49 72
 52 10 62 53
 56 75 74 23
 45 94 46 85
 78 91 101 20
 90 77 21 58
 87 43 91 88
 99 31 62 30
 76 45 94 46
 101 79 43 78
 93 84 74 47
 57 56 23 75
 93 46 85 84
 46 94 75 85
 82 83 48 99
 100 24 25 55
 53 62 63 10
 48 49 82 99
 100 48 47 83
 92 49 82 81
 62 72 53 99
 71 96 51 81
 92 26 72 71
 93 33 32 85
 96 7 41 71
 61 71 81 96
 96 29 4 81
 18 97 79 40
 94 33 65 85
 43 91 88 101
 97 37 69 89
 98 40 97 18
 98 5 37 39
 98 18 70 40
 6 42 89 40
 97 60 2 18
 98 38 5 39
 98 38 39 70
 97 2 60 17
 101 17 16 69
 90 76 22 21
 88 68 91 67
 101 69 60 17
 77 86 87 90
 16 68 15 58
 35 87 67 88
 90 21 77 76
 90 34 86 87
 79 101 60 78
 94 76 57 86
 22 57 75 76
 93 75 47 74
 94 65 56 75
 100 84 83 47
 93 55 13 56
 53 99 26 54
 93 64 12 55
 100 55 64 84
 84 55 64 93
 76 86 94 45
 92 71 52 27
 92 81 50 49
 71 52 61 92
 92 71 27 26
 95 51 28 80
 95 0 41 8
 98 39 6 70
 54 63 83 100
 97 89 69 60
 100 84 64 32
 97 69 38 17
 78 101 60 20
 79 18 3 19
 97 17 60 69
 101 79 60 89
 13 56 14 94
 35 36 88 67
 18 79 60 19
 14 94 66 13
 90 58 21 22
 91 101 58 68
 33 65 85 93
 90 66 34 35
 86 77 45 76
 33 94 65 34
 90 86 57 76
 89 40 98 6
 20 91 101 21
 93 74 84 55
 90 35 34 87
 75 76 57 94
 93 32 64 84
 14 57 94 56
 101 60 20 59
 66 94 65 13
 93 84 47 46
 57 76 22 90
 23 56 24 74
 88 36 68 67
 86 94 45 85
 94 86 33 85
 10 53 11 63
 75 57 22 23
 93 56 75 74
 90 57 66 67
 93 85 75 65
 56 94 75 57
 34 94 65 66
 21 91 101 58
 34 86 33 94
 75 65 56 93
 58 87 77 91
 57 66 67 14
 100 11 12 54
 90 57 58 22
 100 55 74 24
 54 11 63 100
 82 30 99 62
 26 99 25 54
 83 54 73 99
 90 87 77 58
 72 53 99 26
 93 13 55 12
 92 53 26 27
 72 82 62 92
 101 36 88 89
 61 52 95 9
 95 1 9 8
 95 61 28 29
 92 71 72 50
 92 27 52 53
 95 9 52 8
 9 10 62 52
 95 8 52 0
 95 28 1 80
 100 47 74 84
 91 68 88 101
 57 66 86 90
 96 27 71 41
 93 46 47 75
 44 77 45 86
 99 63 83 54
 92 82 62 30
 92 82 30 29
 101 69 68 37
 74 56 24 55
 81 71 50 51
 101 37 89 69
 54 99 63 53
 92 71 81 61
 92 49 50 72
 100 32 63 31
 101 37 68 36
 99 49 82 72
 60 89 69 101
 100 31 63 83
 101 59 17 60
 100 31 84 32
 53 52 92 62
 55 74 84 100
 101 88 36 68
 101 36 89 37
 31 63 83 99
 101 69 16 68
        </DataArray>
        <DataArray type="Int32" Name="offsets" format="ascii">
 4
 8
 12
 16
 20
 24
 28
 32
 36
 40
 44
 48
 52
 56
 60
 64
 68
 72
 76
 80
 84
 88
 92
 96
 100
 104
 108
 112
 116
 120
 124
 128
 132
 136
 140
 144
 148
 152
 156
 160
 164
 168
 172
 176
 180
 184
 188
 192
 196
 200
 204
 208
 212
 216
 220
 224
 228
 232
 236
 240
 244
 248
 252
 256
 260
 264
 268
 272
 276
 280
 284
 288
 292
 296
 300
 304
 308
 312
 316
 320
 324
 328
 332
 336
 340
 344
 348
 352
 356
 360
 364
 368
 372
 376
 380
 384
 388
 392
 396
 400
 404
 408
 412
 416
 420
 424
 428
 432
 436
 440
 444
 448
 452
 456
 460
 464
 468
 472
 476
 480
 484
 488
 492
 496
 500
 504
 508
 512
 516
 520
 524
 528
 532
 536
 540
 544
 548
 552
 556
 560
 564
 568
 572
 576
 580
 584
 588
 592
 596
 600
 604
 608
 612
 616
 620
 624
 628
 632
 636
 640
 644
 648
 652
 656
 660
 664
 668
 672
 676
 680
 684
 688
 692
 696
 700
 704
 708
 712
 716
 720
 724
 728
 732
 736
 740
 744
 748
 752
 756
 760
 764
 768
 772
 776
 780
 784
 788
 792
 796
 800
 804
 808
 812
 816
 820
 824
 828
 832
 836
 840
 844
 848
 852
 856
 860
 864
 868
 872
 876
 880
 884
 888
 892
 896
 900
 904
 908
 912
 916
 920
 924
 928
 932
 936
 940
 944
 948
 952
 956
 960
 964
 968
 972
 976
 980
 984
 988
 992
 996
 1000
 1004
 1008
 1012
 1016
 1020
 1024
 1028
 1032
 1036
 1040
 1044
 1048
 1052
 1056
 1060
 1064
 1068
 1072
 1076
 1080
 1084
 1088
 1092
 1096
 1100
 1104
 1108
 1112
 1116
 1120
 1124
 1128
 1132
 1136
 1140
 1144
 1148
 1152
        </DataArray>
        <DataArray type="UInt8" Name="types" format="ascii">
 10
 10
 10
 10
 10
 10
 10
 10
 10
 10
 10
 10
 10
 10
 10
 10
 10
 10
 10
 10
 10
 10
 10
 10
 10
 10
 10
 10
 10
 10
 10
 10
 10
 10
 10
 10
 10
 10
 10
 10
 10
 10
 10
 10
 10
 10
 10
 10
 10
 10
 10
 10
 10
 10
 10
 10
 10
 10
 10
 10
 10
 10
 10
 10
 10
 10
 10
 10
 10
 10
 10
 10
 10
 10
 10
 10
 10
 10
 10
 10
 10
 10
 10
 10
 10
 10
 10
 10
 10
 10
 10
 10
 10
 10
 10
 10
 10
 10
 10
 10
 10
 10
 10
 10
 10
 10
 10
 10
 10
 10
 10
 10
 10
 10
 10
 10
 10
 10
 10
 10
 10
 10
 10
 10
 10
 10
 10
 10
 10
 10
 10
 10
 10
 10
 10
 10
 10
 10
 10
 10
 10
 10
 10
 10
 10
 10
 10
 10
 10
 10
 10
 10
 10
 10
 10
 10
 10
 10
 10
 10
 10
 10
 10
 10
 10
 10
 10
 10
 10
 10
 10
 10
 10
 10
 10
 10
 10
 10
 10
 10
 10
 10
 10
 10
 10
 10
 10
 10
 10
 10
 10
 10
 10
 10
 10
 10
 10
 10
 10
 10
 10
 10
 10
 10
 10
 10
 10
 10
 10
 10
 10
 10
 10
 10
 10
 10
 10
 10
 10
 10
 10
 10
 10
 10
 10
 10
 10
 10
 10
 10
 10
 10
 10
 10
 10
 10
 10
 10
 10
 10
 10
 10
 10
 10
 10
 10
 10
 10
 10
 10
 10
 10
 10
 10
 10
 10
 10
 10
 10
 10
 10
 10
 10
 10
 10
 10
 10
 10
 10
 10
 10
 10
 10
 10
 10
 10
 10
 10
 10
 10
 10
 10
 10
 10
 10
 10
 10
 10
        </DataArray>
      </Cells>
      <PointData Scalars="Displacement">
        <DataArray type="Float64" Name="Displacement" NumberOfComponents="3" format="ascii">
        0.00000000 0.00000000 0.00000000
        0.00000000 0.00000000 0.00000000
        -60660.45921565 818902.48646801 -25143.12860741
        -60655.92825971 818930.39728339 22807.02993119
        0.00000000 0.00000000 0.00000000
        -60675.56770240 818964.84054749 -23014.47710827
        -60648.15838858 818925.90119495 24959.81798740
        0.00000000 0.00000000 0.00000000
        0.00000000 0.00000000 0.00000000
        -3913.35616160 11590.46826137 -5318.91644890
        -9706.56137353 45438.22022766 -10197.52448709
        -16975.66754900 98791.39715557 -14176.09263777
        -25048.12015708 169970.24927556 -17286.66706316
        -32313.66959983 256662.36678731 -19823.18463731
        -38104.13386494 356129.65076853 -21892.28248513
        -43599.47231952 465270.80998194 -23853.21865351
        -49373.38334909 581413.12797451 -24620.31508346
        -55149.37625311 698905.72433961 -24953.30122415
        -60644.23213879 818888.46662593 -1150.18792163
        -55134.24997373 698929.31345816 22498.32068098
        -49286.58584691 581500.24254278 21960.39591283
        -43397.22236470 465242.52345709 21325.42491036
        -37709.17492984 356171.80845132 19877.16845981
        -31997.31911560 256758.35532437 17176.17581420
        -24967.15397236 170030.99729591 14170.82286361
        -16994.66265058 98808.42677475 10803.60538163
        -9448.39329631 45335.49765550 7413.06793144
        -3354.60097868 11485.05324184 3961.16933927
        0.00000000 0.00000000 0.00000000
        -3720.30354807 11977.16981947 -3672.59891071
        -9555.15914037 45443.38691405 -7623.24977132
        -16911.55294454 98667.84541101 -11174.25567910
        -24993.50872036 170037.88947909 -14517.47937131
        -32244.04657899 256920.38034880 -17584.92425537
        -38028.02811654 356437.02701397 -19987.92378074
        -43532.95932212 465486.85403756 -21461.83831946
        -49342.95031856 581446.86953640 -22367.85179411
        -55173.68201410 698943.10143280 -22741.58677809
        -60663.90393379 818904.60492343 -24112.49701220
        -60646.46311287 818920.51993365 974.75165276
        -60648.07340749 818889.23694100 23863.63871339
        0.00000000 0.00000000 0.00000000
        -55128.07574677 698946.29890645 24725.69266424
        -49330.29137780 581411.77168643 24258.27824918
        -43457.63879730 465420.99944080 23546.27502461
        -37849.96387533 356427.39588537 21598.53507998
        -32129.58132765 256868.50362973 19622.32087550
        -25023.15038243 169987.69967636 17070.78700990
        -17054.88369447 98715.31480781 13672.63360510
        -9543.96919946 45432.81816241 9535.96656056
        -3561.00458599 11944.49160612 5478.17441833
        0.00000000 0.00000000 0.00000000
        -3616.46254888 11387.73731401 -626.03787881
        -9537.53692543 45309.33979951 -985.34040878
        -16983.47938010 98782.66639551 -1309.72125201
        -24962.14657088 169974.65111949 -1369.29030202
        -32160.86821014 256628.65034630 -1129.08363090
        -37892.75330991 356101.05130888 -866.90837078
        -43472.92094845 465260.59789649 -1197.60214378
        -49308.20174107 581432.30874831 -1349.66107309
        -55152.38932340 698903.32494495 -1178.06852438
        -3800.43155986 11923.58857723 -4786.53871465
        -9561.78876725 45523.93715778 -8801.85116766
        -16912.43418459 98699.04434307 -12410.14452472
        -25022.13999984 170019.84771577 -15936.28582187
        -32270.05164712 256879.68580183 -18796.99825073
        -38040.37586856 356291.66951669 -21058.44426159
        -43531.34610292 465377.08808451 -22676.01387477
        -49337.76951211 581444.97228798 -23433.81741400
        -55157.84636211 698897.13949905 -23868.23669585
        -60636.12455798 818890.24263497 -99.26665497
        -3416.19948361 11785.37660568 4313.36551282
        -9511.86081480 45502.58038655 8585.60310542
        -17025.92849270 98763.08785142 12326.58484377
        -24991.51324687 169973.41803914 15835.38213466
        -32080.84283991 256876.03905403 18524.37599285
        -37768.93774869 356320.56682414 20760.32012482
        -43400.17665495 465337.51890984 22382.29961546
        -49321.04265557 581435.37263587 23196.24204101
        -55130.62777917 698925.09854739 23644.47171437
        0.00000000 0.00000000 0.00000000
        -3633.90316101 11904.96285837 510.52373183
        -9561.35446719 45363.96865514 707.43037290
        -16962.45275778 98662.76371047 1088.97344335
        -24983.57224946 169988.08859188 1085.15257202
        -32152.67946299 256842.13523373 865.10463385
        -37865.77503875 356412.25303372 621.32436122
        -43454.34763878 465451.87652196 976.53105532
        -49306.78289013 581393.60686179 892.21051439
        -55132.49372682 698936.09645370 977.46440442
        -41042.23329202 417392.42191072 -4722.96381760
        -46546.35375471 526740.12310332 9453.10246772
        -5610.92493764 22633.34715249 -1068.79448597
        -28789.42775545 215947.42221638 730.88074655
        -34533.27948859 297860.38659553 -1532.75274842
        -695.81666982 2186.81945315 301.28331563
        -1734.62667840 5536.03704826 1090.54196903
        -58145.99425984 764250.74282386 -9411.71218130
        -59549.36863910 795007.72497163 1424.15531940
        -12575.45690978 66799.94906724 -436.61095510
        -21057.55437338 134764.72512425 1593.56291509
        -50709.71323521 609414.31770853 -5767.07976534
        </DataArray>
      </PointData>
      <CellData Scalars="density">
        <DataArray type="Float64" Name="Stress" NumberOfComponents="6" format="ascii">
      -2282.78881380 -2760.72067834 -2790.61665618 324.91501612 869.28033420 -22325.80847513
      927.68970649 -2469.97280997 -4014.75208512 -1668.68636978 -889.63164143 14650.35629634
      4136.08087511 -2998.81152876 16516.87790622 -130.87135163 -2230.41282367 210.34953194
      4326.10511912 2194.67973440 9534.27016638 -672.01501852 -4605.81272909 -6430.30305164
      7435.49713762 3386.40650164 -2735.60025596 -1658.00820734 2052.94167383 -30542.89307190
      2264.80230613 7733.54231463 597.43725154 2012.96117931 6263.48014790 -23849.34295756
      3625.49251898 2765.10436301 1196.78924749 589.10693015 6125.99210398 24505.06795848
      34.77759614 840.33170386 3070.22374030 2506.37693550 2556.30941744 -21448.84656301
      1546.66716138 -10310.73356278 22735.94973343 -2713.22466483 8210.06014558 1469.38474225
      388.99992241 -1844.16569754 1763.92912110 -4712.10190584 7009.87601763 -34003.32507684
      6827.38194783 -2744.12758963 29832.09373035 668.03493458 1907.70589437 -2040.57954218
      7524.71840425 -2367.37100795 32221.64569767 1299.67509856 601.93739923 -136.95560258
      6829.51572519 -2735.95508825 29835.18561397 839.25655184 4567.46080683 -2001.12004701
      -5922.37407995 573.12885352 -6160.76343693 3316.13717589 -20053.00178042 -23321.19596301
      -27837.90623694 -19642.29899452 -53855.74545529 8282.75136232 -29055.61597919 44042.25453219
      15887.94089996 6275.12359293 43374.89964074 -744.42748000 -16732.77110793 19532.48296751
      5483.35698567 -1299.70273702 32932.22825471 1246.22555459 -6724.91661909 14919.95498428
      -12168.58287260 -14075.63449467 -34750.19877629 -3951.09757264 9537.21914108 -44416.06080729
      -12168.58287260 -14075.63449467 -34750.19877629 -3951.09757264 9537.21914108 -44416.06080729
      -8942.24764854 -2378.83940497 -27428.65275684 -791.97983010 13541.44138265 -39869.13511887
      -8942.24764854 -2378.83940497 -27428.65275684 -791.97983010 13541.44138265 -39869.13511887
      12783.13286310 457.69375750 30733.70423511 -3239.41119638 34172.96396374 14315.22868381
      -3374.78443995 3076.55005689 -22448.91297616 1892.20108062 762.96433463 -4879.58476257
      -583.57874514 1331.24859826 -1967.36901237 566.61965773 901.54434639 -684.78821243
      -1867.86386884 -1487.03647967 2530.48254959 -1240.72360039 2576.55203019 -21174.27340156
      -5871.66228881 -5490.83489964 -6811.71376368 -1240.72360039 7547.79221481 23318.69294450
      -1244.06309012 -509.88867268 -2717.85549715 -330.59423117 -1965.52696594 -2310.05844770
      -488.96437054 506.19485814 305.83854511 -510.42139163 1302.18441401 -864.95854234
      93.88979492 -700.28559554 -1260.67857203 -44.12824780 -1920.28032615 -5336.29948437
      335.89164276 -241.10782135 1197.05601272 81.75598225 1133.97397741 -294.25068916
      1293.95605807 -424.63372366 2989.69997477 -474.10124832 -1094.10941717 -386.94292748
      817.73317153 -851.38540313 1633.20116734 -706.38074501 37.05024212 -540.53149670
      893.49598758 690.86483438 1713.33541964 329.91327422 1351.99031021 -8.01841002
      -9183.95655999 3339.10232581 -39163.26467537 780.06665911 -387.81394834 -6417.13049763
      -1141.89486797 -651.33773494 -2729.63974918 -322.73806375 428.23352183 -4703.81894744
      1542.70685183 -529.71887855 3032.79966643 -589.58062371 -505.24641611 -1316.94184699
      1438.83300077 -17.00346996 2869.15199830 -797.41600570 61.37648900 -1719.49556193
      110.96791776 352.17452153 166.07024811 -932.81032591 562.91538215 -227.26003362
      -468.32249265 -576.65547214 -286.36587312 -89.80647588 956.36657759 -5342.93844485
      -656.55332311 -883.94799054 46.70041460 277.90515585 706.82715544 -14.82550026
      330.56568870 -354.31919496 882.08511942 493.47924789 1180.30745962 372.89139241
      9847.98906801 -474.85550035 38073.36573594 -394.89397048 3906.44746168 -2888.38597242
      -6680.25628514 7691.28801262 -34784.67602234 230.75732420 4751.32184816 -95.36161667
      -6955.72106521 7637.75829902 -34883.37437044 408.75365061 -1373.88054437 -828.91107811
      -5509.14152187 9038.57731478 -32613.35620395 111.33026869 1375.37188764 -2147.60908647
      5939.01700438 -6739.00837750 30865.75804006 -696.11001424 5079.03514964 998.22556141
      1434.66098247 1053.09582243 1342.01775609 9295.89735327 12191.39802671 32287.98093969
      1100.49496791 2083.42774283 1550.86752784 7487.18332425 1560.86042088 -40866.82950295
      7225.48909645 -2157.85723655 36781.71522361 1789.41127303 -2769.35404328 -2273.07350644
      -8249.46762182 -8249.46762182 -19248.75778425 0.00000000 12701.48238270 -39918.34338407
      -671.41675369 -8.23247111 -1056.43365068 -1514.29320652 3365.12046194 4610.21933300
      2185.75190377 3559.49897253 -6540.07703918 -739.64989614 7298.13974415 40950.51793110
      10181.77559945 -4493.27767274 38432.52967089 1918.47055060 14308.85636616 -22642.71180536
      16977.30093017 2794.18243283 53796.82066774 2286.30221886 14617.04095293 -17323.03345687
      -5331.18921674 -5026.53341496 610.57159129 631.13741315 -6381.02439942 32172.49222464
      -8249.46762182 -8249.46762182 -19248.75778425 0.00000000 12701.48238270 -39918.34338407
      1843.01982422 -893.17922689 -4820.28391385 -6951.25930310 28034.43888231 -45788.30769683
      -8249.46762182 -8249.46762182 -19248.75778425 0.00000000 12701.48238270 -39918.34338407
      2383.28528462 10066.63571495 -2614.73315332 -849.34308504 2326.88190211 -7917.41739827
      -2036.77528797 -2908.92033593 -9623.13221014 1501.41291179 -993.71279876 -3191.77553019
      -522.17933430 385.35513872 -6951.81997896 -858.80566217 5122.67644807 -29598.05112533
      -4759.34786853 -9973.44148322 -7432.50514758 201.72143968 2186.36074797 2981.36020514
      -618.96629772 -757.07923280 1107.77549712 -2823.25591034 2636.24816521 -13679.08580883
      -2707.03920748 479.15569418 -7018.07450718 -3850.34762076 2962.85106843 1125.30469557
      -322.59821710 3538.48457238 -6155.26569840 109.70164482 2163.34963423 -2201.26618606
      3595.50121917 12116.53827498 5804.10543535 257.31002560 -297.11944851 884.10560667
      5800.15863401 6707.69310704 7800.30194711 -858.80566217 2405.87941237 35050.65531883
      932.94018639 488.16245961 4169.41400168 -537.06738949 433.23611442 13308.01254342
      -3674.84139090 -5618.73815421 -9908.10546852 -1536.44641060 -4884.89068918 -12084.76591843
      -508.05483150 1719.41180894 7941.44180356 389.87054579 -306.15828568 -10729.95747356
      2840.33335509 3368.93090079 5192.64061705 4053.93750929 -2596.16796600 -4382.00629366
      653.00477153 1835.04100761 2267.00289002 -3225.19639586 -1371.09187539 698.35377899
      12792.65699471 -2439.79791330 39188.78263505 2595.76625245 -11470.21282037 -14460.15735520
      -8359.62221587 -8054.96641409 -6455.77207335 631.13741315 411.61767774 -44249.94279795
      629.95019673 246.63283638 1971.89023352 -3441.44232587 5762.20437891 35385.13523329
      3141.64895768 1706.66190275 -1812.41872387 -1498.82892065 498.90597514 29944.64096181
      9716.56973992 6262.47947655 44946.85375018 -696.66741397 11921.04055265 -38984.48983445
      7736.39344326 -11985.49310771 38878.40908591 3829.88938054 -506.33776199 -18390.23068298
      12571.09567008 -9921.21105925 40948.10436849 1969.16555475 -8661.36914991 -18402.08023480
      -7506.33587842 -9850.91124417 -13812.37038032 -5281.33166327 6335.76960657 39647.26293953
      3877.97798171 -11068.19542443 37349.45759560 1784.38197294 1019.84062210 -18344.08774741
      -1806.15148524 -2634.15958508 -1138.15605179 105.97752868 7741.88038857 19059.64919310
      -2972.14912878 -744.68248834 2191.88844325 389.87054579 -1176.36949055 15840.50645018
      -1001.02425939 -5503.71714534 1355.51550696 947.45252015 188.26499167 14475.87197478
      -734.29436887 485.29499253 768.50552051 -201.88520754 3797.66734224 -9784.74655789
      -5795.19119461 -4442.93974252 -4248.03124286 949.26552020 5721.12441813 20747.36375406
      5902.69098858 7422.95091471 23607.05543139 2021.20103921 -1502.63560228 -15439.58879849
      2190.75969050 783.42370835 6250.23872039 -599.12058343 -2064.42891288 10932.63911972
      22499.14007008 21069.88435389 48580.75788260 -9330.43361452 -47832.81974938 31121.92736719
      -2997.18904762 -5901.06812281 -4638.54427066 -6012.97081220 1095.94303138 -48243.86234999
      1251.58306936 -2146.07944710 -3259.00090508 -1668.68636977 429.88311936 -12126.04576490
      -1914.97083762 42.18726594 -4673.20482519 134.40228489 7654.18412689 -32329.85133349
      778.13772694 709.80823945 -7693.03973306 -1482.41217911 388.41656008 -3600.81881477
      -742.92796482 2189.18049195 -4240.26829891 -572.59746058 1506.45921366 -1550.12106877
      -4541.53482341 -7567.84675018 -7448.24426086 -7421.44265187 7848.57093115 -44789.92580567
      -2278.50158862 -2723.27931541 -3323.95014003 -537.06738949 1720.43308167 -12251.10054220
      -7083.31893211 5555.86370925 -34439.78284820 -927.39562336 6889.40406460 1118.41260133
      -5269.19917321 -504.21607962 -17951.82045549 -2489.28750450 -12460.77305948 2111.78074071
      -2636.51330237 -540.25923493 2290.77589261 1625.78814531 -5322.30814748 41763.63251167
      -1042.90418017 15510.74641389 -29565.01369451 -3704.34644423 6475.35202564 -11580.52080769
      -163.07239090 -374.82096843 -5379.72748420 656.83949414 -432.01495641 25816.58050582
      1439.72746019 85.57120750 625.24087382 3351.04032244 12935.62144306 -34243.91522521
      -5380.24333884 -4211.70480403 -9392.41334415 699.52204733 4434.68719111 29142.08791041
      9368.58529828 -5783.08422627 37158.57523223 179.27642827 4504.61269816 -9713.09989760
      3276.34582478 3064.59724726 2645.58168574 656.83949414 1189.44655546 -38469.24039495
      218.59093291 -172.93620878 51.90514421 -6254.93869834 11868.81826029 -38496.93738452
      -8249.46762182 -8249.46762182 -19248.75778425 0.00000000 12701.48238270 -39918.34338407
      53.95030125 643.78286874 1194.01788723 -87.92324011 452.33251287 -4692.07937762
      152.77964896 1133.98527782 107.22345325 321.46094840 1321.12268296 -3926.10402864
      -11994.33964503 121.51015510 -44928.50936445 804.70279349 3002.57211974 -11635.51897538
      448.68562656 -854.90803923 1776.40708989 237.69059720 1376.63385593 -811.23454944
      -21858.34735761 -27427.77448370 -69567.56758804 -3059.90391581 -8704.00351021 -45940.34130555
      6024.47447185 -12380.11158871 51282.46058854 -5571.53722191 4813.33263314 -22885.67598223
      -8249.46762182 -8249.46762182 -19248.75778425 0.00000000 12701.48238270 -39918.34338407
      -13104.85889011 -107.47801087 -43575.38495615 1863.03807533 12902.30835989 -15751.97334497
      -37314.85277373 -35670.93170379 -81588.25290557 -10565.62187870 -18869.16084124 -47441.48450783
      -3407.82639845 -2003.35632742 -6297.49887481 -1989.32144869 281.04763129 -2708.39720992
      435.32185338 925.87898642 950.53260063 -322.73806375 1587.42991918 4245.23307666
      -9311.74251964 2932.91683002 -39323.45611200 1245.50243817 10624.03270700 -9300.85494020
      1693.84565217 1215.91378763 6488.19709776 324.91501612 1457.58672833 12717.21044882
      -238.94984728 -280.89888915 -529.76411782 -934.86739396 -72.99495138 -885.40596799
      -2080.07326542 -941.19986098 -5388.67858183 429.88963449 303.19114298 3431.63624854
      -1951.45561730 -2760.25293172 -4236.98084637 -371.09364394 2220.41863562 -13064.66676746
      -34.53505984 -360.23873881 -5497.67971351 1596.33189714 -1275.25686750 3664.92469057
      6441.23211495 7854.35225694 8265.02390973 1675.91334036 4306.71361488 38494.41284807
      -11389.11505687 -10777.87739652 -3057.07114291 1602.06767729 -4066.50101332 46689.64082897
      -6150.14325963 -4373.94114766 -30047.15745047 882.02626971 1339.71857623 17783.45905925
      -11174.60507891 -9855.29573283 -26071.11347406 -4040.57424801 -14450.22892838 -22203.13337020
      -3436.87349264 -9541.10313847 -7657.94342316 1019.60675367 -1114.19661770 2882.80939143
      2197.25498052 1388.45766610 5443.34388188 -371.09364394 1160.33690584 12503.94031331
      2139.71265938 2193.06680411 2143.03917246 -1790.58409326 -2776.13869902 3417.77572950
      8455.41488794 -6736.16991898 36025.82404610 1143.54104311 5628.40361170 -10054.40228403
      -1635.20161006 998.21305387 -19953.23979739 56.52742319 5881.95396633 -2394.20865212
      1132.76797488 4905.31212720 -2670.87261329 459.42822452 1920.78407829 -1100.68452209
      1831.88956443 600.11834452 233.32417169 -1035.76483589 3963.32594745 -24906.57901178
      7850.72945369 9626.93156566 2621.54554728 882.02626971 -3881.21391574 -30561.95160479
      2539.15867938 3262.45645507 3940.96339398 -4536.76006003 3789.11763213 26661.76060010
      4175.38563213 3314.99747616 2479.87317818 589.10693015 1433.61095961 -19881.75503815
      -1242.41296019 1097.12630944 -3859.01578401 -8857.83968204 15002.33052132 36998.15430046
      -17953.92349720 -15699.31577481 -43768.15872343 7369.96960749 -24901.78413047 24915.27542074
      7355.05704939 7966.29470974 40679.33043837 1602.06767729 1431.83415996 -27362.20427103
      -17618.56089250 -17405.23236679 -51873.79849525 -6541.69042763 -31645.44407145 -35153.08390670
      -19060.59269430 -16484.11000272 -44644.95709045 -6713.66358014 -19303.34308632 -32131.18517260
      496.14123084 3346.42900407 -816.29604906 -7004.05539860 12165.69049739 41091.01615324
      -16.03815317 -399.35551352 464.58408377 -3441.44232587 11816.18447716 -33315.18239523
      7274.26986573 21840.38523269 3629.16043647 -5114.18877847 -3595.01586628 44914.83006186
      -11235.99706027 -1490.81009497 -46540.43345265 -318.78925954 896.10580433 -13257.64805255
      13099.47076281 11427.32990029 38032.48167771 -2857.07120506 -21612.82588264 20644.90874298
      -7939.23537229 14654.84421554 -41118.96212317 878.86174417 13139.22562970 -11279.92736261
      -4646.61109612 -8288.67369600 -11464.63666870 2723.76489150 -579.33309615 39190.15918603
      19319.88097793 16419.99949663 47447.94443525 -4197.62623150 -34900.48200722 34378.64110029